<?xml version="1.0"?>
  <VTKFile type="RectilinearGrid" version="1.0" byte_order="LittleEndian" header_type="UInt64">
   <RectilinearGrid WholeExtent="1  220 1 200 1 1">
    <Piece Extent="1 220 1 200 1 1">
     <Coordinates>
      <DataArray type="Float64" NumberOfComponents="1" Name="X" format="ascii"> .0000000000E+00  .3981797497E-01  .7963594994E-01  .1194539249E+00  .1592718999E+00  .1990898749E+00  .2389078498E+00  .2787258248E+00  .3185437998E+00  .3583617747E+00  .3981797497E+00  .4379977247E+00  .4778156997E+00  .5176336746E+00  .5574516496E+00  .5972696246E+00  .6370875995E+00  .6769055745E+00  .7167235495E+00  .7565415245E+00  .7963594994E+00  .8361774744E+00  .8759954494E+00  .9158134243E+00  .9556313993E+00  .9954493743E+00  .1035267349E+01  .1075085324E+01  .1114903299E+01  .1154721274E+01  .1194539249E+01  .1234357224E+01  .1274175199E+01  .1313993174E+01  .1353811149E+01  .1393629124E+01  .1433447099E+01  .1473265074E+01  .1513083049E+01  .1552901024E+01  .1592718999E+01  .1632536974E+01  .1672354949E+01  .1712172924E+01  .1751990899E+01  .1791808874E+01  .1831626849E+01  .1871444824E+01  .1911262799E+01  .1951080774E+01  .1990898749E+01  .2030716724E+01  .2070534699E+01  .2110352673E+01  .2150170648E+01  .2189988623E+01  .2229806598E+01  .2269624573E+01  .2309442548E+01  .2349260523E+01  .2389078498E+01  .2428896473E+01  .2468714448E+01  .2508532423E+01  .2548350398E+01  .2588168373E+01  .2627986348E+01  .2667804323E+01  .2707622298E+01  .2747440273E+01  .2787258248E+01  .2827076223E+01  .2866894198E+01  .2906712173E+01  .2946530148E+01  .2986348123E+01  .3026166098E+01  .3065984073E+01  .3105802048E+01  .3145620023E+01  .3185437998E+01  .3225255973E+01  .3265073948E+01  .3304891923E+01  .3344709898E+01  .3384527873E+01  .3424345848E+01  .3464163823E+01  .3503981797E+01  .3543799772E+01  .3583617747E+01  .3623435722E+01  .3663253697E+01  .3703071672E+01  .3742889647E+01  .3782707622E+01  .3822525597E+01  .3862343572E+01  .3902161547E+01  .3941979522E+01  .3981797497E+01  .4021615472E+01  .4061433447E+01  .4101251422E+01  .4141069397E+01  .4180887372E+01  .4220705347E+01  .4260523322E+01  .4300341297E+01  .4340159272E+01  .4379977247E+01  .4419795222E+01  .4459613197E+01  .4499431172E+01  .4539249147E+01  .4579067122E+01  .4618885097E+01  .4658703072E+01  .4698521047E+01  .4738339022E+01  .4778156997E+01  .4817974972E+01  .4857792947E+01  .4897610922E+01  .4937428896E+01  .4977246871E+01  .5017064846E+01  .5056882821E+01  .5096700796E+01  .5136518771E+01  .5176336746E+01  .5216154721E+01  .5255972696E+01  .5295790671E+01  .5335608646E+01  .5375426621E+01  .5415244596E+01  .5455062571E+01  .5494880546E+01  .5534698521E+01  .5574516496E+01  .5614334471E+01  .5654152446E+01  .5693970421E+01  .5733788396E+01  .5773606371E+01  .5813424346E+01  .5853242321E+01  .5893060296E+01  .5932878271E+01  .5972696246E+01  .6012514221E+01  .6052332196E+01  .6092150171E+01  .6131968146E+01  .6171786121E+01  .6211604096E+01  .6251422071E+01  .6291240046E+01  .6331058020E+01  .6370875995E+01  .6410693970E+01  .6450511945E+01  .6490329920E+01  .6530147895E+01  .6569965870E+01  .6609783845E+01  .6649601820E+01  .6689419795E+01  .6729237770E+01  .6769055745E+01  .6808873720E+01  .6848691695E+01  .6888509670E+01  .6928327645E+01  .6968145620E+01  .7007963595E+01  .7047781570E+01  .7087599545E+01  .7127417520E+01  .7167235495E+01  .7207053470E+01  .7246871445E+01  .7286689420E+01  .7326507395E+01  .7366325370E+01  .7406143345E+01  .7445961320E+01  .7485779295E+01  .7525597270E+01  .7565415245E+01  .7605233220E+01  .7645051195E+01  .7684869170E+01  .7724687144E+01  .7764505119E+01  .7804323094E+01  .7844141069E+01  .7883959044E+01  .7923777019E+01  .7963594994E+01  .8003412969E+01  .8043230944E+01  .8083048919E+01  .8122866894E+01  .8162684869E+01  .8202502844E+01  .8242320819E+01  .8282138794E+01  .8321956769E+01  .8361774744E+01  .8401592719E+01  .8441410694E+01  .8481228669E+01  .8521046644E+01  .8560864619E+01  .8600682594E+01  .8640500569E+01  .8680318544E+01  .8720136519E+01 </DataArray>
      <DataArray type="Float64" NumberOfComponents="1" Name="Y" format="ascii"> .0000000000E+00 .2802488744E-02 .5606471465E-02 .8413442934E-02 .1122489952E-01 .1404233997E-01 .1686726625E-01 .1970118427E-01 .2254560479E-01 .2540204412E-01 .2827202500E-01 .3115707739E-01 .3405873927E-01 .3697855750E-01 .3991808859E-01 .4287889958E-01 .4586256884E-01 .4887068694E-01 .5190485746E-01 .5496669790E-01 .5805784048E-01 .6117993306E-01 .6433464000E-01 .6752364303E-01 .7074864217E-01 .7401135665E-01 .7731352576E-01 .8065690988E-01 .8404329130E-01 .8747447529E-01 .9095229097E-01 .9447859232E-01 .9805525917E-01 .1016841982E+00 .1053673440E+00 .1091066599E+00 .1129041395E+00 .1167618069E+00 .1206817189E+00 .1246659649E+00 .1287166690E+00 .1328359905E+00 .1370261255E+00 .1412893076E+00 .1456278094E+00 .1500439439E+00 .1545400652E+00 .1591185700E+00 .1637818993E+00 .1685325388E+00 .1733730213E+00 .1783059270E+00 .1833338856E+00 .1884595775E+00 .1936857352E+00 .1990151446E+00 .2044506468E+00 .2099951394E+00 .2156515782E+00 .2214229784E+00 .2273124168E+00 .2333230329E+00 .2394580311E+00 .2457206816E+00 .2521143232E+00 .2586423642E+00 .2653082846E+00 .2721156379E+00 .2790680531E+00 .2861692365E+00 .2934229735E+00 .3008331311E+00 .3084036596E+00 .3161385947E+00 .3240420598E+00 .3321182682E+00 .3403715252E+00 .3488062305E+00 .3574268806E+00 .3662380711E+00 .3752444991E+00 .3844509659E+00 .3938623792E+00 .4034837563E+00 .4133202262E+00 .4233770325E+00 .4336595366E+00 .4441732197E+00 .4549236868E+00 .4659166687E+00 .4771580257E+00 .4886537504E+00 .5004099711E+00 .5124329549E+00 .5247291111E+00 .5373049946E+00 .5501673096E+00 .5633229127E+00 .5767788171E+00 .5905421960E+00 .6046203865E+00 .6190208935E+00 .6337513938E+00 .6488197400E+00 .6642339649E+00 .6800022857E+00 .6961331083E+00 .7126350318E+00 .7295168532E+00 .7467875722E+00 .7644563954E+00 .7825327419E+00 .8010262482E+00 .8199467727E+00 .8393044019E+00 .8591094551E+00 .8793724902E+00 .9001043091E+00 .9213159638E+00 .9430187619E+00 .9652242731E+00 .9879443348E+00 .1011191059E+01 .1034976838E+01 .1059314351E+01 .1084216574E+01 .1109696781E+01 .1135768554E+01 .1162445794E+01 .1189742721E+01 .1217673886E+01 .1246254181E+01 .1275498839E+01 .1305423453E+01 .1336043973E+01 .1367376723E+01 .1399438408E+01 .1432246117E+01 .1465817341E+01 .1500169977E+01 .1535322337E+01 .1571293160E+01 .1608101622E+01 .1645767346E+01 .1684310411E+01 .1723751362E+01 .1764111227E+01 .1805411521E+01 .1847674259E+01 .1890921972E+01 .1935177716E+01 .1980465081E+01 .2026808210E+01 .2074231809E+01 .2122761158E+01 .2172422128E+01 .2223241193E+01 .2275245443E+01 .2328462601E+01 .2382921038E+01 .2438649783E+01 .2495678546E+01 .2554037728E+01 .2613758440E+01 .2674872518E+01 .2737412541E+01 .2801411849E+01 .2866904558E+01 .2933925583E+01 .3002510652E+01 .3072696327E+01 .3144520022E+01 .3218020027E+01 .3293235522E+01 .3370206606E+01 .3448974310E+01 .3529580624E+01 .3612068520E+01 .3696481969E+01 .3782865973E+01 .3871266581E+01 .3961730919E+01 .4054307213E+01 .4149044813E+01 .4245994224E+01 .4345207127E+01 .4446736414E+01 .4550636207E+01 .4656961894E+01 .4765770157E+01 .4877118999E+01 .4991067778E+01 .5107677201E+01 .5227009003E+01 .5349123638E+01 .5474069557E+01 .5601849285E+01 .5732348110E+01 .5865246842E+01 .6000000000E+01</DataArray>
      <DataArray type="Float64" NumberOfComponents="1" name="Z" format="ascii">0.0</DataArray>
     </Coordinates>
   <PointData>
                                                                                                                                                                                                                                                                                                                                                                                                                                                                                                                                                                                                                                                                                                                                                                                                                                                                                         
    <DataArray type="Float64" NumberOfComponents="1" Name="rho" format="ascii"> 0.5193946275E+00 0.5193947043E+00 0.5193947359E+00 0.5193947225E+00 0.5193947719E+00 0.5193948005E+00 0.5193948380E+00 0.5193947836E+00 0.5193947107E+00 0.5193948158E+00 0.5193948125E+00 0.5193948022E+00 0.5193948063E+00 0.5193948242E+00 0.5193948015E+00 0.5193947959E+00 0.5193948403E+00 0.5193948401E+00 0.5193948455E+00 0.5193948367E+00 0.5193948876E+00 0.5193948771E+00 0.5193947527E+00 0.5193947048E+00 0.5193947896E+00 0.5193948239E+00 0.5193948559E+00 0.5193949853E+00 0.5193949471E+00 0.5193949016E+00 0.5193948172E+00 0.5193947769E+00 0.5193948610E+00 0.5193948726E+00 0.5193949015E+00 0.5193949565E+00 0.5193949815E+00 0.5193949435E+00 0.5193948892E+00 0.5193949235E+00 0.5193949453E+00 0.5193950211E+00 0.5193949334E+00 0.5193950395E+00 0.5193949383E+00 0.5193949329E+00 0.5193949122E+00 0.5193949045E+00 0.5193949527E+00 0.5193946815E+00 0.5193950710E+00 0.5193948478E+00 0.5193949825E+00 0.5193949778E+00 0.5193950266E+00 0.5193948008E+00 0.5193951460E+00 0.5193946548E+00 0.5193947872E+00 0.5193950097E+00 0.5193951300E+00 0.5193949297E+00 0.5193951623E+00 0.5193947288E+00 0.5193951069E+00 0.5193951251E+00 0.5193949639E+00 0.5193950331E+00 0.5193949845E+00 0.5193949707E+00 0.5193950040E+00 0.5193948453E+00 0.5193949514E+00 0.5193950418E+00 0.5193945182E+00 0.5193949240E+00 0.5193948002E+00 0.5193945936E+00 0.5193947688E+00 0.5193950244E+00 0.5193950186E+00 0.5193950423E+00 0.5193950544E+00 0.5193950860E+00 0.5193950937E+00 0.5193951794E+00 0.5193951321E+00 0.5193950782E+00 0.5193953621E+00 0.5193952631E+00 0.5193952365E+00 0.5193951399E+00 0.5193950331E+00 0.5193949845E+00 0.5193951019E+00 0.5193950100E+00 0.5193949491E+00 0.5193948943E+00 0.5193948058E+00 0.5193946245E+00 0.5193948595E+00 0.5193951407E+00 0.5193952469E+00 0.5193951705E+00 0.5193951181E+00 0.5193950884E+00 0.5193950557E+00 0.5193950933E+00 0.5193951521E+00 0.5193951889E+00 0.5193952191E+00 0.5193952660E+00 0.5193952884E+00 0.5193949973E+00 0.5193952890E+00 0.5193945755E+00 0.5193951936E+00 0.5193946774E+00 0.5193945779E+00 0.5193954390E+00 0.5193953586E+00 0.5193953477E+00 0.5193952652E+00 0.5193951831E+00 0.5193951498E+00 0.5193952526E+00 0.5193953515E+00 0.5193952956E+00 0.5193952851E+00 0.5193951096E+00 0.5193952718E+00 0.5193953632E+00 0.5193953394E+00 0.5193953483E+00 0.5193951328E+00 0.5193951783E+00 0.5193951212E+00 0.5193952928E+00 0.5193952701E+00 0.5193952869E+00 0.5193952310E+00 0.5193952760E+00 0.5193952904E+00 0.5193953897E+00 0.5193953504E+00 0.5193953736E+00 0.5193953488E+00 0.5193953663E+00 0.5193953796E+00 0.5193954030E+00 0.5193953796E+00 0.5193953653E+00 0.5193953849E+00 0.5193953914E+00 0.5193953584E+00 0.5193952719E+00 0.5193953217E+00 0.5193953416E+00 0.5193953067E+00 0.5193953144E+00 0.5193952831E+00 0.5193952513E+00 0.5193953274E+00 0.5193953731E+00 0.5193954624E+00 0.5193954820E+00 0.5193954139E+00 0.5193952959E+00 0.5193953687E+00 0.5193952245E+00 0.5193953952E+00 0.5193954863E+00 0.5193955082E+00 0.5193954357E+00 0.5193954328E+00 0.5193954464E+00 0.5193955116E+00 0.5193955243E+00 0.5193954987E+00 0.5193955207E+00 0.5193955060E+00 0.5193954588E+00 0.5193954530E+00 0.5193954715E+00 0.5193954845E+00 0.5193955482E+00 0.5193956714E+00 0.5193955515E+00 0.5193955795E+00 0.5193955588E+00 0.5193955633E+00 0.5193955337E+00 0.5193955085E+00 0.5193955012E+00 0.5193955046E+00 0.5193955155E+00 0.5193954749E+00 0.5193954405E+00 0.5193954728E+00 0.5193955163E+00 0.5193954799E+00 0.5193954567E+00 0.5193954585E+00 0.5193954613E+00 0.5193954610E+00 0.5193954920E+00 0.5193955166E+00 0.5193955241E+00 0.5193955780E+00 0.5193955596E+00 0.5193955809E+00 0.5193955024E+00 0.5193951138E+00 0.5193953469E+00 0.5193955288E+00 0.5193954659E+00 0.5193953401E+00 0.5193954663E+00 0.5193953981E+00 0.5193952506E+00 0.5197504240E+00 0.5197504590E+00 0.5197504716E+00 0.5197504574E+00 0.5197502810E+00 0.5197501914E+00 0.5197497936E+00 0.5197496095E+00 0.5197495178E+00 0.5197493376E+00 0.5197492535E+00 0.5197491141E+00 0.5197490625E+00 0.5197489603E+00 0.5197487740E+00 0.5197487082E+00 0.5197485804E+00 0.5197484396E+00 0.5197483057E+00 0.5197482454E+00 0.5197480593E+00 0.5197478486E+00 0.5197477717E+00 0.5197476329E+00 0.5197476053E+00 0.5197474873E+00 0.5197472572E+00 0.5197470468E+00 0.5197469754E+00 0.5197468874E+00 0.5197469178E+00 0.5197468852E+00 0.5197467345E+00 0.5197466136E+00 0.5197464892E+00 0.5197462478E+00 0.5197460690E+00 0.5197458910E+00 0.5197458527E+00 0.5197457984E+00 0.5197456734E+00 0.5197454951E+00 0.5197452374E+00 0.5197450949E+00 0.5197451067E+00 0.5197450426E+00 0.5197449087E+00 0.5197448836E+00 0.5197448121E+00 0.5197444726E+00 0.5197443959E+00 0.5197441528E+00 0.5197441652E+00 0.5197441304E+00 0.5197438496E+00 0.5197438926E+00 0.5197438815E+00 0.5197434456E+00 0.5197433913E+00 0.5197432308E+00 0.5197430466E+00 0.5197428055E+00 0.5197426934E+00 0.5197423756E+00 0.5197424483E+00 0.5197424174E+00 0.5197422938E+00 0.5197420266E+00 0.5197420372E+00 0.5197420344E+00 0.5197420702E+00 0.5197419522E+00 0.5197420137E+00 0.5197417296E+00 0.5197417685E+00 0.5197414095E+00 0.5197415296E+00 0.5197411379E+00 0.5197408060E+00 0.5197407982E+00 0.5197408009E+00 0.5197407688E+00 0.5197407143E+00 0.5197405343E+00 0.5197405202E+00 0.5197404751E+00 0.5197402658E+00 0.5197400874E+00 0.5197397821E+00 0.5197398077E+00 0.5197395349E+00 0.5197393747E+00 0.5197391634E+00 0.5197391427E+00 0.5197392918E+00 0.5197392609E+00 0.5197390484E+00 0.5197388808E+00 0.5197382352E+00 0.5197380130E+00 0.5197379828E+00 0.5197380984E+00 0.5197381614E+00 0.5197381948E+00 0.5197382376E+00 0.5197381705E+00 0.5197381482E+00 0.5197381388E+00 0.5197379682E+00 0.5197377971E+00 0.5197376856E+00 0.5197374303E+00 0.5197372125E+00 0.5197370972E+00 0.5197368481E+00 0.5197368556E+00 0.5197367746E+00 0.5197359488E+00 0.5197356315E+00 0.5197358410E+00 0.5197360641E+00 0.5197360202E+00 0.5197360413E+00 0.5197361466E+00 0.5197360143E+00 0.5197360670E+00 0.5197358280E+00 0.5197357678E+00 0.5197354000E+00 0.5197350870E+00 0.5197351529E+00 0.5197351715E+00 0.5197350033E+00 0.5197350826E+00 0.5197346811E+00 0.5197343756E+00 0.5197340400E+00 0.5197341082E+00 0.5197342041E+00 0.5197342857E+00 0.5197342704E+00 0.5197342769E+00 0.5197340962E+00 0.5197338198E+00 0.5197337112E+00 0.5197336947E+00 0.5197336284E+00 0.5197334658E+00 0.5197333506E+00 0.5197331904E+00 0.5197331044E+00 0.5197330442E+00 0.5197329957E+00 0.5197328447E+00 0.5197327020E+00 0.5197327484E+00 0.5197328376E+00 0.5197326361E+00 0.5197323877E+00 0.5197322395E+00 0.5197321797E+00 0.5197321842E+00 0.5197321128E+00 0.5197321403E+00 0.5197318095E+00 0.5197314944E+00 0.5197315291E+00 0.5197314472E+00 0.5197311603E+00 0.5197309458E+00 0.5197308266E+00 0.5197309246E+00 0.5197307651E+00 0.5197307214E+00 0.5197306823E+00 0.5197306135E+00 0.5197304305E+00 0.5197301800E+00 0.5197300745E+00 0.5197300039E+00 0.5197298947E+00 0.5197298698E+00 0.5197299417E+00 0.5197297972E+00 0.5197297038E+00 0.5197296085E+00 0.5197293450E+00 0.5197293013E+00 0.5197292321E+00 0.5197290347E+00 0.5197288993E+00 0.5197287698E+00 0.5197287339E+00 0.5197286949E+00 0.5197286046E+00 0.5197284379E+00 0.5197283372E+00 0.5197283640E+00 0.5197283864E+00 0.5197282271E+00 0.5197280455E+00 0.5197279916E+00 0.5197278743E+00 0.5197277511E+00 0.5197276907E+00 0.5197276230E+00 0.5197274739E+00 0.5197273599E+00 0.5197270929E+00 0.5197269219E+00 0.5197269869E+00 0.5197267362E+00 0.5197260727E+00 0.5197261722E+00 0.5197258398E+00 0.5197260131E+00 0.5197257974E+00 0.5197260961E+00 0.5197257390E+00 0.5197258010E+00 0.5208155244E+00 0.5208155338E+00 0.5208152993E+00 0.5208151383E+00 0.5208143449E+00 0.5208138396E+00 0.5208123643E+00 0.5208118090E+00 0.5208112288E+00 0.5208108570E+00 0.5208102943E+00 0.5208099557E+00 0.5208096877E+00 0.5208092137E+00 0.5208085352E+00 0.5208082076E+00 0.5208076633E+00 0.5208071633E+00 0.5208065935E+00 0.5208062698E+00 0.5208055035E+00 0.5208047261E+00 0.5208045956E+00 0.5208042671E+00 0.5208036993E+00 0.5208035130E+00 0.5208025388E+00 0.5208016677E+00 0.5208011796E+00 0.5208011323E+00 0.5208011320E+00 0.5208008323E+00 0.5208004164E+00 0.5207998897E+00 0.5207991840E+00 0.5207982725E+00 0.5207974895E+00 0.5207968269E+00 0.5207970772E+00 0.5207966639E+00 0.5207960853E+00 0.5207953171E+00 0.5207946470E+00 0.5207938902E+00 0.5207939311E+00 0.5207937082E+00 0.5207932760E+00 0.5207931066E+00 0.5207927126E+00 0.5207920822E+00 0.5207909948E+00 0.5207905686E+00 0.5207902433E+00 0.5207900594E+00 0.5207889321E+00 0.5207895662E+00 0.5207884428E+00 0.5207879806E+00 0.5207875359E+00 0.5207864386E+00 0.5207848227E+00 0.5207850220E+00 0.5207842833E+00 0.5207839468E+00 0.5207837700E+00 0.5207828277E+00 0.5207824519E+00 0.5207817240E+00 0.5207818087E+00 0.5207817866E+00 0.5207818602E+00 0.5207817259E+00 0.5207814032E+00 0.5207808632E+00 0.5207799704E+00 0.5207792097E+00 0.5207798484E+00 0.5207784788E+00 0.5207773548E+00 0.5207770776E+00 0.5207769979E+00 0.5207769063E+00 0.5207764214E+00 0.5207759079E+00 0.5207756939E+00 0.5207752398E+00 0.5207745196E+00 0.5207738450E+00 0.5207721594E+00 0.5207729098E+00 0.5207717237E+00 0.5207715388E+00 0.5207710957E+00 0.5207709041E+00 0.5207710393E+00 0.5207712199E+00 0.5207703643E+00 0.5207701687E+00 0.5207684824E+00 0.5207678939E+00 0.5207672145E+00 0.5207666694E+00 0.5207665169E+00 0.5207666500E+00 0.5207668616E+00 0.5207666778E+00 0.5207665802E+00 0.5207663763E+00 0.5207656391E+00 0.5207648528E+00 0.5207643500E+00 0.5207634285E+00 0.5207624384E+00 0.5207627278E+00 0.5207618785E+00 0.5207617430E+00 0.5207611097E+00 0.5207597839E+00 0.5207590554E+00 0.5207579159E+00 0.5207579928E+00 0.5207578980E+00 0.5207582581E+00 0.5207585545E+00 0.5207582876E+00 0.5207578263E+00 0.5207571268E+00 0.5207566524E+00 0.5207556788E+00 0.5207551187E+00 0.5207547242E+00 0.5207545873E+00 0.5207538845E+00 0.5207538216E+00 0.5207533138E+00 0.5207518409E+00 0.5207510539E+00 0.5207506269E+00 0.5207511203E+00 0.5207512032E+00 0.5207512277E+00 0.5207509802E+00 0.5207502282E+00 0.5207492463E+00 0.5207487747E+00 0.5207485495E+00 0.5207484497E+00 0.5207477363E+00 0.5207472907E+00 0.5207466278E+00 0.5207463636E+00 0.5207461555E+00 0.5207458400E+00 0.5207453710E+00 0.5207449505E+00 0.5207451581E+00 0.5207452672E+00 0.5207443329E+00 0.5207437146E+00 0.5207431140E+00 0.5207428727E+00 0.5207428856E+00 0.5207425630E+00 0.5207424874E+00 0.5207409529E+00 0.5207398653E+00 0.5207398961E+00 0.5207396013E+00 0.5207388669E+00 0.5207383101E+00 0.5207376903E+00 0.5207372617E+00 0.5207367188E+00 0.5207368167E+00 0.5207367957E+00 0.5207363816E+00 0.5207357129E+00 0.5207348317E+00 0.5207345122E+00 0.5207341793E+00 0.5207337730E+00 0.5207338106E+00 0.5207339487E+00 0.5207333841E+00 0.5207330091E+00 0.5207324785E+00 0.5207312968E+00 0.5207312851E+00 0.5207309202E+00 0.5207302757E+00 0.5207297703E+00 0.5207293848E+00 0.5207292127E+00 0.5207289849E+00 0.5207286376E+00 0.5207280105E+00 0.5207277692E+00 0.5207278557E+00 0.5207277679E+00 0.5207270738E+00 0.5207264961E+00 0.5207263378E+00 0.5207258797E+00 0.5207253891E+00 0.5207251067E+00 0.5207248223E+00 0.5207241284E+00 0.5207236724E+00 0.5207226748E+00 0.5207219394E+00 0.5207224216E+00 0.5207210178E+00 0.5207204995E+00 0.5207206959E+00 0.5207188010E+00 0.5207193426E+00 0.5207189274E+00 0.5207195395E+00 0.5207182761E+00 0.5207180851E+00 0.5225929199E+00 0.5225917046E+00 0.5225918141E+00 0.5225921950E+00 0.5225894116E+00 0.5225883620E+00 0.5225847995E+00 0.5225843326E+00 0.5225825601E+00 0.5225819942E+00 0.5225805456E+00 0.5225799272E+00 0.5225793366E+00 0.5225780648E+00 0.5225765076E+00 0.5225757931E+00 0.5225745428E+00 0.5225733233E+00 0.5225720255E+00 0.5225712140E+00 0.5225692764E+00 0.5225677659E+00 0.5225678310E+00 0.5225660867E+00 0.5225661217E+00 0.5225645098E+00 0.5225627975E+00 0.5225602799E+00 0.5225601918E+00 0.5225590096E+00 0.5225593904E+00 0.5225590940E+00 0.5225581353E+00 0.5225568613E+00 0.5225551196E+00 0.5225529958E+00 0.5225515738E+00 0.5225503940E+00 0.5225509205E+00 0.5225498035E+00 0.5225486528E+00 0.5225470339E+00 0.5225453694E+00 0.5225429977E+00 0.5225442129E+00 0.5225432120E+00 0.5225422588E+00 0.5225422489E+00 0.5225410244E+00 0.5225401541E+00 0.5225360769E+00 0.5225361836E+00 0.5225353882E+00 0.5225352864E+00 0.5225320416E+00 0.5225350866E+00 0.5225318149E+00 0.5225309619E+00 0.5225294728E+00 0.5225272897E+00 0.5225225984E+00 0.5225239493E+00 0.5225209484E+00 0.5225203770E+00 0.5225198191E+00 0.5225192715E+00 0.5225196248E+00 0.5225167857E+00 0.5225175415E+00 0.5225166663E+00 0.5225170754E+00 0.5225167434E+00 0.5225158672E+00 0.5225158736E+00 0.5225092672E+00 0.5225092187E+00 0.5225157311E+00 0.5225074552E+00 0.5225063593E+00 0.5225056056E+00 0.5225060226E+00 0.5225058405E+00 0.5225044114E+00 0.5225032313E+00 0.5225024422E+00 0.5225012004E+00 0.5225001723E+00 0.5224971502E+00 0.5224942378E+00 0.5224962298E+00 0.5224937949E+00 0.5224928032E+00 0.5224921010E+00 0.5224922186E+00 0.5224924778E+00 0.5224923328E+00 0.5224905083E+00 0.5224901154E+00 0.5224842813E+00 0.5224848218E+00 0.5224833644E+00 0.5224821091E+00 0.5224819273E+00 0.5224828189E+00 0.5224831209E+00 0.5224826954E+00 0.5224826211E+00 0.5224819869E+00 0.5224801114E+00 0.5224781575E+00 0.5224767188E+00 0.5224744184E+00 0.5224722665E+00 0.5224745925E+00 0.5224673270E+00 0.5224726016E+00 0.5224689692E+00 0.5224657293E+00 0.5224656502E+00 0.5224600301E+00 0.5224639920E+00 0.5224622624E+00 0.5224631738E+00 0.5224638879E+00 0.5224633451E+00 0.5224623635E+00 0.5224609296E+00 0.5224594783E+00 0.5224575389E+00 0.5224560730E+00 0.5224553249E+00 0.5224546104E+00 0.5224535322E+00 0.5224536620E+00 0.5224514847E+00 0.5224480444E+00 0.5224464682E+00 0.5224452410E+00 0.5224467928E+00 0.5224475419E+00 0.5224475282E+00 0.5224468509E+00 0.5224446850E+00 0.5224427209E+00 0.5224419260E+00 0.5224417658E+00 0.5224408634E+00 0.5224392514E+00 0.5224381834E+00 0.5224369869E+00 0.5224364204E+00 0.5224360378E+00 0.5224354389E+00 0.5224342488E+00 0.5224336179E+00 0.5224340461E+00 0.5224340476E+00 0.5224319594E+00 0.5224301181E+00 0.5224291777E+00 0.5224285787E+00 0.5224290358E+00 0.5224280099E+00 0.5224276314E+00 0.5224241433E+00 0.5224212976E+00 0.5224221116E+00 0.5224201040E+00 0.5224188729E+00 0.5224182033E+00 0.5224177617E+00 0.5224165694E+00 0.5224155222E+00 0.5224153679E+00 0.5224151860E+00 0.5224141233E+00 0.5224123993E+00 0.5224103496E+00 0.5224096539E+00 0.5224088008E+00 0.5224081192E+00 0.5224082076E+00 0.5224085569E+00 0.5224072450E+00 0.5224064265E+00 0.5224050015E+00 0.5224029152E+00 0.5224025825E+00 0.5224016218E+00 0.5224001311E+00 0.5223991443E+00 0.5223982570E+00 0.5223980966E+00 0.5223974466E+00 0.5223965288E+00 0.5223950193E+00 0.5223947290E+00 0.5223949334E+00 0.5223946831E+00 0.5223931397E+00 0.5223920562E+00 0.5223917461E+00 0.5223906131E+00 0.5223893539E+00 0.5223887779E+00 0.5223877153E+00 0.5223863592E+00 0.5223850614E+00 0.5223826840E+00 0.5223818555E+00 0.5223811925E+00 0.5223806905E+00 0.5223771725E+00 0.5223789142E+00 0.5223740794E+00 0.5223758773E+00 0.5223747261E+00 0.5223756579E+00 0.5223721528E+00 0.5223728339E+00 0.5250780518E+00 0.5250754658E+00 0.5250759928E+00 0.5250782319E+00 0.5250709923E+00 0.5250700118E+00 0.5250632443E+00 0.5250639191E+00 0.5250559421E+00 0.5250604621E+00 0.5250554481E+00 0.5250557854E+00 0.5250542750E+00 0.5250519166E+00 0.5250491002E+00 0.5250478558E+00 0.5250455993E+00 0.5250435336E+00 0.5250410610E+00 0.5250393451E+00 0.5250361338E+00 0.5250336958E+00 0.5250329809E+00 0.5250309252E+00 0.5250284324E+00 0.5250291361E+00 0.5250241310E+00 0.5250191752E+00 0.5250196760E+00 0.5250170059E+00 0.5250185540E+00 0.5250175159E+00 0.5250169439E+00 0.5250143029E+00 0.5250105675E+00 0.5250069436E+00 0.5250052251E+00 0.5250020064E+00 0.5250046443E+00 0.5250006501E+00 0.5249997761E+00 0.5249964360E+00 0.5249938543E+00 0.5249889153E+00 0.5249920359E+00 0.5249906244E+00 0.5249890925E+00 0.5249889819E+00 0.5249867104E+00 0.5249847141E+00 0.5249771396E+00 0.5249779776E+00 0.5249763141E+00 0.5249763030E+00 0.5249705622E+00 0.5249756746E+00 0.5249708479E+00 0.5249681452E+00 0.5249652983E+00 0.5249613613E+00 0.5249510220E+00 0.5249566979E+00 0.5249508949E+00 0.5249459736E+00 0.5249498427E+00 0.5249453813E+00 0.5249467756E+00 0.5249431963E+00 0.5249426480E+00 0.5249427804E+00 0.5249436884E+00 0.5249424075E+00 0.5249406632E+00 0.5249481844E+00 0.5249159352E+00 0.5249325563E+00 0.5249453784E+00 0.5249242575E+00 0.5249224894E+00 0.5249230747E+00 0.5249229255E+00 0.5249237731E+00 0.5249202573E+00 0.5249209566E+00 0.5249185913E+00 0.5249166786E+00 0.5249141294E+00 0.5249069702E+00 0.5249036344E+00 0.5249057808E+00 0.5249010979E+00 0.5248998336E+00 0.5248991903E+00 0.5248997244E+00 0.5249008236E+00 0.5249002295E+00 0.5248972815E+00 0.5248954977E+00 0.5248865309E+00 0.5248870657E+00 0.5248834689E+00 0.5248819574E+00 0.5248813561E+00 0.5248826306E+00 0.5248833335E+00 0.5248831257E+00 0.5248828695E+00 0.5248818396E+00 0.5248782137E+00 0.5248744490E+00 0.5248718868E+00 0.5248681819E+00 0.5248616328E+00 0.5248691208E+00 0.5248564188E+00 0.5248636988E+00 0.5248572726E+00 0.5248515988E+00 0.5248504427E+00 0.5248418450E+00 0.5248487102E+00 0.5248449318E+00 0.5248479855E+00 0.5248487449E+00 0.5248489289E+00 0.5248449906E+00 0.5248473509E+00 0.5248384956E+00 0.5248374153E+00 0.5248351967E+00 0.5248335771E+00 0.5248331074E+00 0.5248304926E+00 0.5248303124E+00 0.5248263728E+00 0.5248194113E+00 0.5248182313E+00 0.5248151624E+00 0.5248200675E+00 0.5248205977E+00 0.5248210691E+00 0.5248186271E+00 0.5248142061E+00 0.5248121155E+00 0.5248091656E+00 0.5248096383E+00 0.5248077682E+00 0.5248049592E+00 0.5248031227E+00 0.5248004716E+00 0.5247997025E+00 0.5247989127E+00 0.5247983359E+00 0.5247963288E+00 0.5247957997E+00 0.5247962384E+00 0.5247957729E+00 0.5247921575E+00 0.5247887448E+00 0.5247870800E+00 0.5247866079E+00 0.5247876743E+00 0.5247855842E+00 0.5247857168E+00 0.5247782157E+00 0.5247738975E+00 0.5247752854E+00 0.5247695361E+00 0.5247708785E+00 0.5247651722E+00 0.5247663187E+00 0.5247626473E+00 0.5247629084E+00 0.5247622787E+00 0.5247624231E+00 0.5247592747E+00 0.5247571590E+00 0.5247530809E+00 0.5247519103E+00 0.5247504775E+00 0.5247495242E+00 0.5247494203E+00 0.5247501011E+00 0.5247476382E+00 0.5247464421E+00 0.5247437387E+00 0.5247402245E+00 0.5247403852E+00 0.5247382721E+00 0.5247355258E+00 0.5247337647E+00 0.5247326460E+00 0.5247319292E+00 0.5247308301E+00 0.5247289879E+00 0.5247264892E+00 0.5247257718E+00 0.5247262032E+00 0.5247256565E+00 0.5247229287E+00 0.5247215398E+00 0.5247209955E+00 0.5247189593E+00 0.5247166790E+00 0.5247155373E+00 0.5247140610E+00 0.5247107789E+00 0.5247082391E+00 0.5247043609E+00 0.5247035715E+00 0.5246999519E+00 0.5247016447E+00 0.5246942461E+00 0.5246961934E+00 0.5246892891E+00 0.5246915213E+00 0.5246901058E+00 0.5246910211E+00 0.5246870725E+00 0.5246868809E+00 0.5282464911E+00 0.5282408501E+00 0.5282431625E+00 0.5282455197E+00 0.5282337244E+00 0.5282338751E+00 0.5282211199E+00 0.5282249901E+00 0.5282121238E+00 0.5282185044E+00 0.5282118719E+00 0.5282125956E+00 0.5282104109E+00 0.5282069507E+00 0.5282014544E+00 0.5282004123E+00 0.5281973317E+00 0.5281934506E+00 0.5281902005E+00 0.5281873284E+00 0.5281822971E+00 0.5281788368E+00 0.5281783685E+00 0.5281760409E+00 0.5281705014E+00 0.5281699727E+00 0.5281632097E+00 0.5281533768E+00 0.5281570601E+00 0.5281476295E+00 0.5281562466E+00 0.5281525787E+00 0.5281515013E+00 0.5281466147E+00 0.5281423173E+00 0.5281352531E+00 0.5281333595E+00 0.5281277637E+00 0.5281333186E+00 0.5281253563E+00 0.5281261254E+00 0.5281181967E+00 0.5281171403E+00 0.5281082462E+00 0.5281143844E+00 0.5281127384E+00 0.5281101271E+00 0.5281089113E+00 0.5281053204E+00 0.5281009479E+00 0.5280903733E+00 0.5280903092E+00 0.5280885914E+00 0.5280881645E+00 0.5280786937E+00 0.5280857976E+00 0.5280809367E+00 0.5280643380E+00 0.5280776864E+00 0.5280633087E+00 0.5280482368E+00 0.5280573922E+00 0.5280461418E+00 0.5280418065E+00 0.5280453216E+00 0.5280396345E+00 0.5280415123E+00 0.5280385722E+00 0.5280336848E+00 0.5280369975E+00 0.5280384334E+00 0.5280344771E+00 0.5280330918E+00 0.5280460320E+00 0.5279845831E+00 0.5280275434E+00 0.5280395671E+00 0.5280095952E+00 0.5280059292E+00 0.5280072161E+00 0.5280065812E+00 0.5280071000E+00 0.5280026948E+00 0.5280029553E+00 0.5279983073E+00 0.5279946350E+00 0.5279910080E+00 0.5279749019E+00 0.5279796166E+00 0.5279776626E+00 0.5279707268E+00 0.5279697388E+00 0.5279698927E+00 0.5279700324E+00 0.5279724503E+00 0.5279714060E+00 0.5279657909E+00 0.5279619641E+00 0.5279485839E+00 0.5279488097E+00 0.5279431957E+00 0.5279404149E+00 0.5279402559E+00 0.5279427369E+00 0.5279442643E+00 0.5279448240E+00 0.5279439553E+00 0.5279428452E+00 0.5279369864E+00 0.5279308757E+00 0.5279257904E+00 0.5279190448E+00 0.5279108838E+00 0.5279203417E+00 0.5279011566E+00 0.5279116034E+00 0.5279019499E+00 0.5278914094E+00 0.5278931977E+00 0.5278725268E+00 0.5278926758E+00 0.5278836427E+00 0.5278886537E+00 0.5278900347E+00 0.5278897786E+00 0.5278837306E+00 0.5278900697E+00 0.5278725475E+00 0.5278720214E+00 0.5278693443E+00 0.5278662833E+00 0.5278646825E+00 0.5278618374E+00 0.5278609415E+00 0.5278546134E+00 0.5278449606E+00 0.5278417571E+00 0.5278376355E+00 0.5278453536E+00 0.5278466831E+00 0.5278481644E+00 0.5278442451E+00 0.5278357347E+00 0.5278337013E+00 0.5278273220E+00 0.5278283386E+00 0.5278221612E+00 0.5278210732E+00 0.5278159494E+00 0.5278138733E+00 0.5278131021E+00 0.5278104303E+00 0.5278118714E+00 0.5278063873E+00 0.5278055977E+00 0.5278090652E+00 0.5278057470E+00 0.5278049967E+00 0.5277951058E+00 0.5277931651E+00 0.5277935795E+00 0.5277961509E+00 0.5277903920E+00 0.5277908362E+00 0.5277777614E+00 0.5277711629E+00 0.5277743280E+00 0.5277625837E+00 0.5277707303E+00 0.5277563